r 0.0041024 /NodeList/1/DeviceList/0/$ns3::CsmaNetDevice/MacRx ns3::EthernetHeader ( length/type=0x806, source=00:00:00:00:00:01, destination=ff:ff:ff:ff:ff:ff) ns3::ArpHeader (request source mac: 00-06-00:00:00:00:00:01 source ipv4: 10.1.1.1 dest ipv4: 10.1.1.7) Payload (size=18) ns3::EthernetTrailer (fcs=0)
+ 0.005 /NodeList/1/DeviceList/0/$ns3::CsmaNetDevice/TxQueue/Enqueue ns3::EthernetHeader ( length/type=0x806, source=00:00:00:00:00:03, destination=ff:ff:ff:ff:ff:ff) ns3::ArpHeader (request source mac: 00-06-00:00:00:00:00:03 source ipv4: 10.1.1.2 dest ipv4: 10.1.1.7) Payload (size=18) ns3::EthernetTrailer (fcs=0)
- 0.005 /NodeList/1/DeviceList/0/$ns3::CsmaNetDevice/TxQueue/Dequeue ns3::EthernetHeader ( length/type=0x806, source=00:00:00:00:00:03, destination=ff:ff:ff:ff:ff:ff) ns3::ArpHeader (request source mac: 00-06-00:00:00:00:00:03 source ipv4: 10.1.1.2 dest ipv4: 10.1.1.7) Payload (size=18) ns3::EthernetTrailer (fcs=0)
r 0.00956327 /NodeList/1/DeviceList/0/$ns3::CsmaNetDevice/MacRx ns3::EthernetHeader ( length/type=0x806, source=00:00:00:00:00:07, destination=ff:ff:ff:ff:ff:ff) ns3::ArpHeader (request source mac: 00-06-00:00:00:00:00:07 source ipv4: 10.1.1.4 dest ipv4: 10.1.1.9) Payload (size=18) ns3::EthernetTrailer (fcs=0)
r 0.010862 /NodeList/1/DeviceList/0/$ns3::CsmaNetDevice/MacRx ns3::EthernetHeader ( length/type=0x806, source=00:00:00:00:00:05, destination=ff:ff:ff:ff:ff:ff) ns3::ArpHeader (request source mac: 00-06-00:00:00:00:00:05 source ipv4: 10.1.1.3 dest ipv4: 10.1.1.9) Payload (size=18) ns3::EthernetTrailer (fcs=0)
r 0.0137186 /NodeList/1/DeviceList/0/$ns3::CsmaNetDevice/MacRx ns3::EthernetHeader ( length/type=0x806, source=00:00:00:00:00:0b, destination=ff:ff:ff:ff:ff:ff) ns3::ArpHeader (request source mac: 00-06-00:00:00:00:00:0b source ipv4: 10.1.1.6 dest ipv4: 10.1.1.7) Payload (size=18) ns3::EthernetTrailer (fcs=0)
r 0.0149134 /NodeList/1/DeviceList/0/$ns3::CsmaNetDevice/MacRx ns3::EthernetHeader ( length/type=0x806, source=00:00:00:00:00:0d, destination=00:00:00:00:00:03) ns3::ArpHeader (reply source mac: 00-06-00:00:00:00:00:0d source ipv4: 10.1.1.7 dest mac: 00-06-00:00:00:00:00:03 dest ipv4: 10.1.1.2) Payload (size=18) ns3::EthernetTrailer (fcs=0)
+ 0.0149134 /NodeList/1/DeviceList/0/$ns3::CsmaNetDevice/TxQueue/Enqueue ns3::EthernetHeader ( length/type=0x800, source=00:00:00:00:00:03, destination=00:00:00:00:00:0d) ns3::Ipv4Header (tos 0x0 DSCP Default ECN Not-ECT ttl 64 id 0 protocol 17 offset (bytes) 0 flags [none] length: 48 10.1.1.2 > 10.1.1.7) ns3::UdpHeader (length: 28 49153 > 9) Payload (size=20) ns3::EthernetTrailer (fcs=0)
- 0.0149134 /NodeList/1/DeviceList/0/$ns3::CsmaNetDevice/TxQueue/Dequeue ns3::EthernetHeader ( length/type=0x800, source=00:00:00:00:00:03, destination=00:00:00:00:00:0d) ns3::Ipv4Header (tos 0x0 DSCP Default ECN Not-ECT ttl 64 id 0 protocol 17 offset (bytes) 0 flags [none] length: 48 10.1.1.2 > 10.1.1.7) ns3::UdpHeader (length: 28 49153 > 9) Payload (size=20) ns3::EthernetTrailer (fcs=0)
+ 0.0149134 /NodeList/1/DeviceList/0/$ns3::CsmaNetDevice/TxQueue/Enqueue ns3::EthernetHeader ( length/type=0x800, source=00:00:00:00:00:03, destination=00:00:00:00:00:0d) ns3::Ipv4Header (tos 0x0 DSCP Default ECN Not-ECT ttl 64 id 1 protocol 17 offset (bytes) 0 flags [none] length: 48 10.1.1.2 > 10.1.1.7) ns3::UdpHeader (length: 28 49153 > 9) Payload (size=20) ns3::EthernetTrailer (fcs=0)
+ 0.0149134 /NodeList/1/DeviceList/0/$ns3::CsmaNetDevice/TxQueue/Enqueue ns3::EthernetHeader ( length/type=0x800, source=00:00:00:00:00:03, destination=00:00:00:00:00:0d) ns3::Ipv4Header (tos 0x0 DSCP Default ECN Not-ECT ttl 64 id 2 protocol 17 offset (bytes) 0 flags [none] length: 48 10.1.1.2 > 10.1.1.7) ns3::UdpHeader (length: 28 49153 > 9) Payload (size=20) ns3::EthernetTrailer (fcs=0)
- 0.0149768 /NodeList/1/DeviceList/0/$ns3::CsmaNetDevice/TxQueue/Dequeue ns3::EthernetHeader ( length/type=0x800, source=00:00:00:00:00:03, destination=00:00:00:00:00:0d) ns3::Ipv4Header (tos 0x0 DSCP Default ECN Not-ECT ttl 64 id 1 protocol 17 offset (bytes) 0 flags [none] length: 48 10.1.1.2 > 10.1.1.7) ns3::UdpHeader (length: 28 49153 > 9) Payload (size=20) ns3::EthernetTrailer (fcs=0)
+ 0.016 /NodeList/1/DeviceList/0/$ns3::CsmaNetDevice/TxQueue/Enqueue ns3::EthernetHeader ( length/type=0x800, source=00:00:00:00:00:03, destination=00:00:00:00:00:0d) ns3::Ipv4Header (tos 0x0 DSCP Default ECN Not-ECT ttl 64 id 7 protocol 17 offset (bytes) 0 flags [none] length: 48 10.1.1.2 > 10.1.1.7) ns3::UdpHeader (length: 28 49153 > 9) Payload (size=20) ns3::EthernetTrailer (fcs=0)
r 0.0170542 /NodeList/1/DeviceList/0/$ns3::CsmaNetDevice/MacRx ns3::EthernetHeader ( length/type=0x806, source=00:00:00:00:00:09, destination=ff:ff:ff:ff:ff:ff) ns3::ArpHeader (request source mac: 00-06-00:00:00:00:00:09 source ipv4: 10.1.1.5 dest ipv4: 10.1.1.7) Payload (size=18) ns3::EthernetTrailer (fcs=0)
- 0.0172732 /NodeList/1/DeviceList/0/$ns3::CsmaNetDevice/TxQueue/Dequeue ns3::EthernetHeader ( length/type=0x800, source=00:00:00:00:00:03, destination=00:00:00:00:00:0d) ns3::Ipv4Header (tos 0x0 DSCP Default ECN Not-ECT ttl 64 id 2 protocol 17 offset (bytes) 0 flags [none] length: 48 10.1.1.2 > 10.1.1.7) ns3::UdpHeader (length: 28 49153 > 9) Payload (size=20) ns3::EthernetTrailer (fcs=0)
+ 0.018 /NodeList/1/DeviceList/0/$ns3::CsmaNetDevice/TxQueue/Enqueue ns3::EthernetHeader ( length/type=0x800, source=00:00:00:00:00:03, destination=00:00:00:00:00:0d) ns3::Ipv4Header (tos 0x0 DSCP Default ECN Not-ECT ttl 64 id 8 protocol 17 offset (bytes) 0 flags [none] length: 48 10.1.1.2 > 10.1.1.7) ns3::UdpHeader (length: 28 49153 > 9) Payload (size=20) ns3::EthernetTrailer (fcs=0)
- 0.0184236 /NodeList/1/DeviceList/0/$ns3::CsmaNetDevice/TxQueue/Dequeue ns3::EthernetHeader ( length/type=0x800, source=00:00:00:00:00:03, destination=00:00:00:00:00:0d) ns3::Ipv4Header (tos 0x0 DSCP Default ECN Not-ECT ttl 64 id 7 protocol 17 offset (bytes) 0 flags [none] length: 48 10.1.1.2 > 10.1.1.7) ns3::UdpHeader (length: 28 49153 > 9) Payload (size=20) ns3::EthernetTrailer (fcs=0)
- 0.019808 /NodeList/1/DeviceList/0/$ns3::CsmaNetDevice/TxQueue/Dequeue ns3::EthernetHeader ( length/type=0x800, source=00:00:00:00:00:03, destination=00:00:00:00:00:0d) ns3::Ipv4Header (tos 0x0 DSCP Default ECN Not-ECT ttl 64 id 8 protocol 17 offset (bytes) 0 flags [none] length: 48 10.1.1.2 > 10.1.1.7) ns3::UdpHeader (length: 28 49153 > 9) Payload (size=20) ns3::EthernetTrailer (fcs=0)
+ 0.02 /NodeList/1/DeviceList/0/$ns3::CsmaNetDevice/TxQueue/Enqueue ns3::EthernetHeader ( length/type=0x800, source=00:00:00:00:00:03, destination=00:00:00:00:00:0d) ns3::Ipv4Header (tos 0x0 DSCP Default ECN Not-ECT ttl 64 id 9 protocol 17 offset (bytes) 0 flags [none] length: 48 10.1.1.2 > 10.1.1.7) ns3::UdpHeader (length: 28 49153 > 9) Payload (size=20) ns3::EthernetTrailer (fcs=0)
- 0.0212254 /NodeList/1/DeviceList/0/$ns3::CsmaNetDevice/TxQueue/Dequeue ns3::EthernetHeader ( length/type=0x800, source=00:00:00:00:00:03, destination=00:00:00:00:00:0d) ns3::Ipv4Header (tos 0x0 DSCP Default ECN Not-ECT ttl 64 id 9 protocol 17 offset (bytes) 0 flags [none] length: 48 10.1.1.2 > 10.1.1.7) ns3::UdpHeader (length: 28 49153 > 9) Payload (size=20) ns3::EthernetTrailer (fcs=0)
+ 0.022 /NodeList/1/DeviceList/0/$ns3::CsmaNetDevice/TxQueue/Enqueue ns3::EthernetHeader ( length/type=0x800, source=00:00:00:00:00:03, destination=00:00:00:00:00:0d) ns3::Ipv4Header (tos 0x0 DSCP Default ECN Not-ECT ttl 64 id 10 protocol 17 offset (bytes) 0 flags [none] length: 48 10.1.1.2 > 10.1.1.7) ns3::UdpHeader (length: 28 49153 > 9) Payload (size=20) ns3::EthernetTrailer (fcs=0)
- 0.0228248 /NodeList/1/DeviceList/0/$ns3::CsmaNetDevice/TxQueue/Dequeue ns3::EthernetHeader ( length/type=0x800, source=00:00:00:00:00:03, destination=00:00:00:00:00:0d) ns3::Ipv4Header (tos 0x0 DSCP Default ECN Not-ECT ttl 64 id 10 protocol 17 offset (bytes) 0 flags [none] length: 48 10.1.1.2 > 10.1.1.7) ns3::UdpHeader (length: 28 49153 > 9) Payload (size=20) ns3::EthernetTrailer (fcs=0)
+ 0.024 /NodeList/1/DeviceList/0/$ns3::CsmaNetDevice/TxQueue/Enqueue ns3::EthernetHeader ( length/type=0x800, source=00:00:00:00:00:03, destination=00:00:00:00:00:0d) ns3::Ipv4Header (tos 0x0 DSCP Default ECN Not-ECT ttl 64 id 11 protocol 17 offset (bytes) 0 flags [none] length: 48 10.1.1.2 > 10.1.1.7) ns3::UdpHeader (length: 28 49153 > 9) Payload (size=20) ns3::EthernetTrailer (fcs=0)
- 0.0242322 /NodeList/1/DeviceList/0/$ns3::CsmaNetDevice/TxQueue/Dequeue ns3::EthernetHeader ( length/type=0x800, source=00:00:00:00:00:03, destination=00:00:00:00:00:0d) ns3::Ipv4Header (tos 0x0 DSCP Default ECN Not-ECT ttl 64 id 11 protocol 17 offset (bytes) 0 flags [none] length: 48 10.1.1.2 > 10.1.1.7) ns3::UdpHeader (length: 28 49153 > 9) Payload (size=20) ns3::EthernetTrailer (fcs=0)
+ 0.026 /NodeList/1/DeviceList/0/$ns3::CsmaNetDevice/TxQueue/Enqueue ns3::EthernetHeader ( length/type=0x800, source=00:00:00:00:00:03, destination=00:00:00:00:00:0d) ns3::Ipv4Header (tos 0x0 DSCP Default ECN Not-ECT ttl 64 id 12 protocol 17 offset (bytes) 0 flags [none] length: 48 10.1.1.2 > 10.1.1.7) ns3::UdpHeader (length: 28 49153 > 9) Payload (size=20) ns3::EthernetTrailer (fcs=0)
- 0.026 /NodeList/1/DeviceList/0/$ns3::CsmaNetDevice/TxQueue/Dequeue ns3::EthernetHeader ( length/type=0x800, source=00:00:00:00:00:03, destination=00:00:00:00:00:0d) ns3::Ipv4Header (tos 0x0 DSCP Default ECN Not-ECT ttl 64 id 12 protocol 17 offset (bytes) 0 flags [none] length: 48 10.1.1.2 > 10.1.1.7) ns3::UdpHeader (length: 28 49153 > 9) Payload (size=20) ns3::EthernetTrailer (fcs=0)
+ 0.028 /NodeList/1/DeviceList/0/$ns3::CsmaNetDevice/TxQueue/Enqueue ns3::EthernetHeader ( length/type=0x800, source=00:00:00:00:00:03, destination=00:00:00:00:00:0d) ns3::Ipv4Header (tos 0x0 DSCP Default ECN Not-ECT ttl 64 id 13 protocol 17 offset (bytes) 0 flags [none] length: 48 10.1.1.2 > 10.1.1.7) ns3::UdpHeader (length: 28 49153 > 9) Payload (size=20) ns3::EthernetTrailer (fcs=0)
- 0.028 /NodeList/1/DeviceList/0/$ns3::CsmaNetDevice/TxQueue/Dequeue ns3::EthernetHeader ( length/type=0x800, source=00:00:00:00:00:03, destination=00:00:00:00:00:0d) ns3::Ipv4Header (tos 0x0 DSCP Default ECN Not-ECT ttl 64 id 13 protocol 17 offset (bytes) 0 flags [none] length: 48 10.1.1.2 > 10.1.1.7) ns3::UdpHeader (length: 28 49153 > 9) Payload (size=20) ns3::EthernetTrailer (fcs=0)
+ 0.03 /NodeList/1/DeviceList/0/$ns3::CsmaNetDevice/TxQueue/Enqueue ns3::EthernetHeader ( length/type=0x800, source=00:00:00:00:00:03, destination=00:00:00:00:00:0d) ns3::Ipv4Header (tos 0x0 DSCP Default ECN Not-ECT ttl 64 id 14 protocol 17 offset (bytes) 0 flags [none] length: 48 10.1.1.2 > 10.1.1.7) ns3::UdpHeader (length: 28 49153 > 9) Payload (size=20) ns3::EthernetTrailer (fcs=0)
- 0.03 /NodeList/1/DeviceList/0/$ns3::CsmaNetDevice/TxQueue/Dequeue ns3::EthernetHeader ( length/type=0x800, source=00:00:00:00:00:03, destination=00:00:00:00:00:0d) ns3::Ipv4Header (tos 0x0 DSCP Default ECN Not-ECT ttl 64 id 14 protocol 17 offset (bytes) 0 flags [none] length: 48 10.1.1.2 > 10.1.1.7) ns3::UdpHeader (length: 28 49153 > 9) Payload (size=20) ns3::EthernetTrailer (fcs=0)
+ 0.032 /NodeList/1/DeviceList/0/$ns3::CsmaNetDevice/TxQueue/Enqueue ns3::EthernetHeader ( length/type=0x800, source=00:00:00:00:00:03, destination=00:00:00:00:00:0d) ns3::Ipv4Header (tos 0x0 DSCP Default ECN Not-ECT ttl 64 id 15 protocol 17 offset (bytes) 0 flags [none] length: 48 10.1.1.2 > 10.1.1.7) ns3::UdpHeader (length: 28 49153 > 9) Payload (size=20) ns3::EthernetTrailer (fcs=0)
- 0.032 /NodeList/1/DeviceList/0/$ns3::CsmaNetDevice/TxQueue/Dequeue ns3::EthernetHeader ( length/type=0x800, source=00:00:00:00:00:03, destination=00:00:00:00:00:0d) ns3::Ipv4Header (tos 0x0 DSCP Default ECN Not-ECT ttl 64 id 15 protocol 17 offset (bytes) 0 flags [none] length: 48 10.1.1.2 > 10.1.1.7) ns3::UdpHeader (length: 28 49153 > 9) Payload (size=20) ns3::EthernetTrailer (fcs=0)
+ 0.034 /NodeList/1/DeviceList/0/$ns3::CsmaNetDevice/TxQueue/Enqueue ns3::EthernetHeader ( length/type=0x800, source=00:00:00:00:00:03, destination=00:00:00:00:00:0d) ns3::Ipv4Header (tos 0x0 DSCP Default ECN Not-ECT ttl 64 id 16 protocol 17 offset (bytes) 0 flags [none] length: 48 10.1.1.2 > 10.1.1.7) ns3::UdpHeader (length: 28 49153 > 9) Payload (size=20) ns3::EthernetTrailer (fcs=0)
- 0.034 /NodeList/1/DeviceList/0/$ns3::CsmaNetDevice/TxQueue/Dequeue ns3::EthernetHeader ( length/type=0x800, source=00:00:00:00:00:03, destination=00:00:00:00:00:0d) ns3::Ipv4Header (tos 0x0 DSCP Default ECN Not-ECT ttl 64 id 16 protocol 17 offset (bytes) 0 flags [none] length: 48 10.1.1.2 > 10.1.1.7) ns3::UdpHeader (length: 28 49153 > 9) Payload (size=20) ns3::EthernetTrailer (fcs=0)
+ 0.036 /NodeList/1/DeviceList/0/$ns3::CsmaNetDevice/TxQueue/Enqueue ns3::EthernetHeader ( length/type=0x800, source=00:00:00:00:00:03, destination=00:00:00:00:00:0d) ns3::Ipv4Header (tos 0x0 DSCP Default ECN Not-ECT ttl 64 id 17 protocol 17 offset (bytes) 0 flags [none] length: 48 10.1.1.2 > 10.1.1.7) ns3::UdpHeader (length: 28 49153 > 9) Payload (size=20) ns3::EthernetTrailer (fcs=0)
- 0.036 /NodeList/1/DeviceList/0/$ns3::CsmaNetDevice/TxQueue/Dequeue ns3::EthernetHeader ( length/type=0x800, source=00:00:00:00:00:03, destination=00:00:00:00:00:0d) ns3::Ipv4Header (tos 0x0 DSCP Default ECN Not-ECT ttl 64 id 17 protocol 17 offset (bytes) 0 flags [none] length: 48 10.1.1.2 > 10.1.1.7) ns3::UdpHeader (length: 28 49153 > 9) Payload (size=20) ns3::EthernetTrailer (fcs=0)
r 0.0361696 /NodeList/1/DeviceList/0/$ns3::CsmaNetDevice/MacRx ns3::EthernetHeader ( length/type=0x806, source=00:00:00:00:00:0d, destination=ff:ff:ff:ff:ff:ff) ns3::ArpHeader (request source mac: 00-06-00:00:00:00:00:0d source ipv4: 10.1.1.7 dest ipv4: 10.1.1.8) Payload (size=18) ns3::EthernetTrailer (fcs=0)
+ 0.038 /NodeList/1/DeviceList/0/$ns3::CsmaNetDevice/TxQueue/Enqueue ns3::EthernetHeader ( length/type=0x800, source=00:00:00:00:00:03, destination=00:00:00:00:00:0d) ns3::Ipv4Header (tos 0x0 DSCP Default ECN Not-ECT ttl 64 id 18 protocol 17 offset (bytes) 0 flags [none] length: 48 10.1.1.2 > 10.1.1.7) ns3::UdpHeader (length: 28 49153 > 9) Payload (size=20) ns3::EthernetTrailer (fcs=0)
- 0.038 /NodeList/1/DeviceList/0/$ns3::CsmaNetDevice/TxQueue/Dequeue ns3::EthernetHeader ( length/type=0x800, source=00:00:00:00:00:03, destination=00:00:00:00:00:0d) ns3::Ipv4Header (tos 0x0 DSCP Default ECN Not-ECT ttl 64 id 18 protocol 17 offset (bytes) 0 flags [none] length: 48 10.1.1.2 > 10.1.1.7) ns3::UdpHeader (length: 28 49153 > 9) Payload (size=20) ns3::EthernetTrailer (fcs=0)
+ 0.04 /NodeList/1/DeviceList/0/$ns3::CsmaNetDevice/TxQueue/Enqueue ns3::EthernetHeader ( length/type=0x800, source=00:00:00:00:00:03, destination=00:00:00:00:00:0d) ns3::Ipv4Header (tos 0x0 DSCP Default ECN Not-ECT ttl 64 id 19 protocol 17 offset (bytes) 0 flags [none] length: 48 10.1.1.2 > 10.1.1.7) ns3::UdpHeader (length: 28 49153 > 9) Payload (size=20) ns3::EthernetTrailer (fcs=0)
- 0.04 /NodeList/1/DeviceList/0/$ns3::CsmaNetDevice/TxQueue/Dequeue ns3::EthernetHeader ( length/type=0x800, source=00:00:00:00:00:03, destination=00:00:00:00:00:0d) ns3::Ipv4Header (tos 0x0 DSCP Default ECN Not-ECT ttl 64 id 19 protocol 17 offset (bytes) 0 flags [none] length: 48 10.1.1.2 > 10.1.1.7) ns3::UdpHeader (length: 28 49153 > 9) Payload (size=20) ns3::EthernetTrailer (fcs=0)
+ 0.042 /NodeList/1/DeviceList/0/$ns3::CsmaNetDevice/TxQueue/Enqueue ns3::EthernetHeader ( length/type=0x800, source=00:00:00:00:00:03, destination=00:00:00:00:00:0d) ns3::Ipv4Header (tos 0x0 DSCP Default ECN Not-ECT ttl 64 id 20 protocol 17 offset (bytes) 0 flags [none] length: 48 10.1.1.2 > 10.1.1.7) ns3::UdpHeader (length: 28 49153 > 9) Payload (size=20) ns3::EthernetTrailer (fcs=0)
- 0.042 /NodeList/1/DeviceList/0/$ns3::CsmaNetDevice/TxQueue/Dequeue ns3::EthernetHeader ( length/type=0x800, source=00:00:00:00:00:03, destination=00:00:00:00:00:0d) ns3::Ipv4Header (tos 0x0 DSCP Default ECN Not-ECT ttl 64 id 20 protocol 17 offset (bytes) 0 flags [none] length: 48 10.1.1.2 > 10.1.1.7) ns3::UdpHeader (length: 28 49153 > 9) Payload (size=20) ns3::EthernetTrailer (fcs=0)
+ 0.044 /NodeList/1/DeviceList/0/$ns3::CsmaNetDevice/TxQueue/Enqueue ns3::EthernetHeader ( length/type=0x800, source=00:00:00:00:00:03, destination=00:00:00:00:00:0d) ns3::Ipv4Header (tos 0x0 DSCP Default ECN Not-ECT ttl 64 id 21 protocol 17 offset (bytes) 0 flags [none] length: 48 10.1.1.2 > 10.1.1.7) ns3::UdpHeader (length: 28 49153 > 9) Payload (size=20) ns3::EthernetTrailer (fcs=0)
- 0.044 /NodeList/1/DeviceList/0/$ns3::CsmaNetDevice/TxQueue/Dequeue ns3::EthernetHeader ( length/type=0x800, source=00:00:00:00:00:03, destination=00:00:00:00:00:0d) ns3::Ipv4Header (tos 0x0 DSCP Default ECN Not-ECT ttl 64 id 21 protocol 17 offset (bytes) 0 flags [none] length: 48 10.1.1.2 > 10.1.1.7) ns3::UdpHeader (length: 28 49153 > 9) Payload (size=20) ns3::EthernetTrailer (fcs=0)
+ 0.046 /NodeList/1/DeviceList/0/$ns3::CsmaNetDevice/TxQueue/Enqueue ns3::EthernetHeader ( length/type=0x800, source=00:00:00:00:00:03, destination=00:00:00:00:00:0d) ns3::Ipv4Header (tos 0x0 DSCP Default ECN Not-ECT ttl 64 id 22 protocol 17 offset (bytes) 0 flags [none] length: 48 10.1.1.2 > 10.1.1.7) ns3::UdpHeader (length: 28 49153 > 9) Payload (size=20) ns3::EthernetTrailer (fcs=0)
- 0.046 /NodeList/1/DeviceList/0/$ns3::CsmaNetDevice/TxQueue/Dequeue ns3::EthernetHeader ( length/type=0x800, source=00:00:00:00:00:03, destination=00:00:00:00:00:0d) ns3::Ipv4Header (tos 0x0 DSCP Default ECN Not-ECT ttl 64 id 22 protocol 17 offset (bytes) 0 flags [none] length: 48 10.1.1.2 > 10.1.1.7) ns3::UdpHeader (length: 28 49153 > 9) Payload (size=20) ns3::EthernetTrailer (fcs=0)
+ 0.048 /NodeList/1/DeviceList/0/$ns3::CsmaNetDevice/TxQueue/Enqueue ns3::EthernetHeader ( length/type=0x800, source=00:00:00:00:00:03, destination=00:00:00:00:00:0d) ns3::Ipv4Header (tos 0x0 DSCP Default ECN Not-ECT ttl 64 id 23 protocol 17 offset (bytes) 0 flags [none] length: 48 10.1.1.2 > 10.1.1.7) ns3::UdpHeader (length: 28 49153 > 9) Payload (size=20) ns3::EthernetTrailer (fcs=0)
- 0.048 /NodeList/1/DeviceList/0/$ns3::CsmaNetDevice/TxQueue/Dequeue ns3::EthernetHeader ( length/type=0x800, source=00:00:00:00:00:03, destination=00:00:00:00:00:0d) ns3::Ipv4Header (tos 0x0 DSCP Default ECN Not-ECT ttl 64 id 23 protocol 17 offset (bytes) 0 flags [none] length: 48 10.1.1.2 > 10.1.1.7) ns3::UdpHeader (length: 28 49153 > 9) Payload (size=20) ns3::EthernetTrailer (fcs=0)
+ 0.05 /NodeList/1/DeviceList/0/$ns3::CsmaNetDevice/TxQueue/Enqueue ns3::EthernetHeader ( length/type=0x800, source=00:00:00:00:00:03, destination=00:00:00:00:00:0d) ns3::Ipv4Header (tos 0x0 DSCP Default ECN Not-ECT ttl 64 id 24 protocol 17 offset (bytes) 0 flags [none] length: 48 10.1.1.2 > 10.1.1.7) ns3::UdpHeader (length: 28 49153 > 9) Payload (size=20) ns3::EthernetTrailer (fcs=0)
- 0.05 /NodeList/1/DeviceList/0/$ns3::CsmaNetDevice/TxQueue/Dequeue ns3::EthernetHeader ( length/type=0x800, source=00:00:00:00:00:03, destination=00:00:00:00:00:0d) ns3::Ipv4Header (tos 0x0 DSCP Default ECN Not-ECT ttl 64 id 24 protocol 17 offset (bytes) 0 flags [none] length: 48 10.1.1.2 > 10.1.1.7) ns3::UdpHeader (length: 28 49153 > 9) Payload (size=20) ns3::EthernetTrailer (fcs=0)
+ 0.052 /NodeList/1/DeviceList/0/$ns3::CsmaNetDevice/TxQueue/Enqueue ns3::EthernetHeader ( length/type=0x800, source=00:00:00:00:00:03, destination=00:00:00:00:00:0d) ns3::Ipv4Header (tos 0x0 DSCP Default ECN Not-ECT ttl 64 id 25 protocol 17 offset (bytes) 0 flags [none] length: 48 10.1.1.2 > 10.1.1.7) ns3::UdpHeader (length: 28 49153 > 9) Payload (size=20) ns3::EthernetTrailer (fcs=0)
- 0.052 /NodeList/1/DeviceList/0/$ns3::CsmaNetDevice/TxQueue/Dequeue ns3::EthernetHeader ( length/type=0x800, source=00:00:00:00:00:03, destination=00:00:00:00:00:0d) ns3::Ipv4Header (tos 0x0 DSCP Default ECN Not-ECT ttl 64 id 25 protocol 17 offset (bytes) 0 flags [none] length: 48 10.1.1.2 > 10.1.1.7) ns3::UdpHeader (length: 28 49153 > 9) Payload (size=20) ns3::EthernetTrailer (fcs=0)
+ 0.054 /NodeList/1/DeviceList/0/$ns3::CsmaNetDevice/TxQueue/Enqueue ns3::EthernetHeader ( length/type=0x800, source=00:00:00:00:00:03, destination=00:00:00:00:00:0d) ns3::Ipv4Header (tos 0x0 DSCP Default ECN Not-ECT ttl 64 id 26 protocol 17 offset (bytes) 0 flags [none] length: 48 10.1.1.2 > 10.1.1.7) ns3::UdpHeader (length: 28 49153 > 9) Payload (size=20) ns3::EthernetTrailer (fcs=0)
- 0.054 /NodeList/1/DeviceList/0/$ns3::CsmaNetDevice/TxQueue/Dequeue ns3::EthernetHeader ( length/type=0x800, source=00:00:00:00:00:03, destination=00:00:00:00:00:0d) ns3::Ipv4Header (tos 0x0 DSCP Default ECN Not-ECT ttl 64 id 26 protocol 17 offset (bytes) 0 flags [none] length: 48 10.1.1.2 > 10.1.1.7) ns3::UdpHeader (length: 28 49153 > 9) Payload (size=20) ns3::EthernetTrailer (fcs=0)
+ 0.056 /NodeList/1/DeviceList/0/$ns3::CsmaNetDevice/TxQueue/Enqueue ns3::EthernetHeader ( length/type=0x800, source=00:00:00:00:00:03, destination=00:00:00:00:00:0d) ns3::Ipv4Header (tos 0x0 DSCP Default ECN Not-ECT ttl 64 id 27 protocol 17 offset (bytes) 0 flags [none] length: 48 10.1.1.2 > 10.1.1.7) ns3::UdpHeader (length: 28 49153 > 9) Payload (size=20) ns3::EthernetTrailer (fcs=0)
- 0.056 /NodeList/1/DeviceList/0/$ns3::CsmaNetDevice/TxQueue/Dequeue ns3::EthernetHeader ( length/type=0x800, source=00:00:00:00:00:03, destination=00:00:00:00:00:0d) ns3::Ipv4Header (tos 0x0 DSCP Default ECN Not-ECT ttl 64 id 27 protocol 17 offset (bytes) 0 flags [none] length: 48 10.1.1.2 > 10.1.1.7) ns3::UdpHeader (length: 28 49153 > 9) Payload (size=20) ns3::EthernetTrailer (fcs=0)
+ 0.058 /NodeList/1/DeviceList/0/$ns3::CsmaNetDevice/TxQueue/Enqueue ns3::EthernetHeader ( length/type=0x800, source=00:00:00:00:00:03, destination=00:00:00:00:00:0d) ns3::Ipv4Header (tos 0x0 DSCP Default ECN Not-ECT ttl 64 id 28 protocol 17 offset (bytes) 0 flags [none] length: 48 10.1.1.2 > 10.1.1.7) ns3::UdpHeader (length: 28 49153 > 9) Payload (size=20) ns3::EthernetTrailer (fcs=0)
- 0.058 /NodeList/1/DeviceList/0/$ns3::CsmaNetDevice/TxQueue/Dequeue ns3::EthernetHeader ( length/type=0x800, source=00:00:00:00:00:03, destination=00:00:00:00:00:0d) ns3::Ipv4Header (tos 0x0 DSCP Default ECN Not-ECT ttl 64 id 28 protocol 17 offset (bytes) 0 flags [none] length: 48 10.1.1.2 > 10.1.1.7) ns3::UdpHeader (length: 28 49153 > 9) Payload (size=20) ns3::EthernetTrailer (fcs=0)
+ 0.06 /NodeList/1/DeviceList/0/$ns3::CsmaNetDevice/TxQueue/Enqueue ns3::EthernetHeader ( length/type=0x800, source=00:00:00:00:00:03, destination=00:00:00:00:00:0d) ns3::Ipv4Header (tos 0x0 DSCP Default ECN Not-ECT ttl 64 id 29 protocol 17 offset (bytes) 0 flags [none] length: 48 10.1.1.2 > 10.1.1.7) ns3::UdpHeader (length: 28 49153 > 9) Payload (size=20) ns3::EthernetTrailer (fcs=0)
- 0.06 /NodeList/1/DeviceList/0/$ns3::CsmaNetDevice/TxQueue/Dequeue ns3::EthernetHeader ( length/type=0x800, source=00:00:00:00:00:03, destination=00:00:00:00:00:0d) ns3::Ipv4Header (tos 0x0 DSCP Default ECN Not-ECT ttl 64 id 29 protocol 17 offset (bytes) 0 flags [none] length: 48 10.1.1.2 > 10.1.1.7) ns3::UdpHeader (length: 28 49153 > 9) Payload (size=20) ns3::EthernetTrailer (fcs=0)
+ 0.062 /NodeList/1/DeviceList/0/$ns3::CsmaNetDevice/TxQueue/Enqueue ns3::EthernetHeader ( length/type=0x800, source=00:00:00:00:00:03, destination=00:00:00:00:00:0d) ns3::Ipv4Header (tos 0x0 DSCP Default ECN Not-ECT ttl 64 id 30 protocol 17 offset (bytes) 0 flags [none] length: 48 10.1.1.2 > 10.1.1.7) ns3::UdpHeader (length: 28 49153 > 9) Payload (size=20) ns3::EthernetTrailer (fcs=0)
- 0.062 /NodeList/1/DeviceList/0/$ns3::CsmaNetDevice/TxQueue/Dequeue ns3::EthernetHeader ( length/type=0x800, source=00:00:00:00:00:03, destination=00:00:00:00:00:0d) ns3::Ipv4Header (tos 0x0 DSCP Default ECN Not-ECT ttl 64 id 30 protocol 17 offset (bytes) 0 flags [none] length: 48 10.1.1.2 > 10.1.1.7) ns3::UdpHeader (length: 28 49153 > 9) Payload (size=20) ns3::EthernetTrailer (fcs=0)
+ 0.064 /NodeList/1/DeviceList/0/$ns3::CsmaNetDevice/TxQueue/Enqueue ns3::EthernetHeader ( length/type=0x800, source=00:00:00:00:00:03, destination=00:00:00:00:00:0d) ns3::Ipv4Header (tos 0x0 DSCP Default ECN Not-ECT ttl 64 id 31 protocol 17 offset (bytes) 0 flags [none] length: 48 10.1.1.2 > 10.1.1.7) ns3::UdpHeader (length: 28 49153 > 9) Payload (size=20) ns3::EthernetTrailer (fcs=0)
- 0.064 /NodeList/1/DeviceList/0/$ns3::CsmaNetDevice/TxQueue/Dequeue ns3::EthernetHeader ( length/type=0x800, source=00:00:00:00:00:03, destination=00:00:00:00:00:0d) ns3::Ipv4Header (tos 0x0 DSCP Default ECN Not-ECT ttl 64 id 31 protocol 17 offset (bytes) 0 flags [none] length: 48 10.1.1.2 > 10.1.1.7) ns3::UdpHeader (length: 28 49153 > 9) Payload (size=20) ns3::EthernetTrailer (fcs=0)
+ 0.066 /NodeList/1/DeviceList/0/$ns3::CsmaNetDevice/TxQueue/Enqueue ns3::EthernetHeader ( length/type=0x800, source=00:00:00:00:00:03, destination=00:00:00:00:00:0d) ns3::Ipv4Header (tos 0x0 DSCP Default ECN Not-ECT ttl 64 id 32 protocol 17 offset (bytes) 0 flags [none] length: 48 10.1.1.2 > 10.1.1.7) ns3::UdpHeader (length: 28 49153 > 9) Payload (size=20) ns3::EthernetTrailer (fcs=0)
- 0.066 /NodeList/1/DeviceList/0/$ns3::CsmaNetDevice/TxQueue/Dequeue ns3::EthernetHeader ( length/type=0x800, source=00:00:00:00:00:03, destination=00:00:00:00:00:0d) ns3::Ipv4Header (tos 0x0 DSCP Default ECN Not-ECT ttl 64 id 32 protocol 17 offset (bytes) 0 flags [none] length: 48 10.1.1.2 > 10.1.1.7) ns3::UdpHeader (length: 28 49153 > 9) Payload (size=20) ns3::EthernetTrailer (fcs=0)
+ 0.068 /NodeList/1/DeviceList/0/$ns3::CsmaNetDevice/TxQueue/Enqueue ns3::EthernetHeader ( length/type=0x800, source=00:00:00:00:00:03, destination=00:00:00:00:00:0d) ns3::Ipv4Header (tos 0x0 DSCP Default ECN Not-ECT ttl 64 id 33 protocol 17 offset (bytes) 0 flags [none] length: 48 10.1.1.2 > 10.1.1.7) ns3::UdpHeader (length: 28 49153 > 9) Payload (size=20) ns3::EthernetTrailer (fcs=0)
- 0.068 /NodeList/1/DeviceList/0/$ns3::CsmaNetDevice/TxQueue/Dequeue ns3::EthernetHeader ( length/type=0x800, source=00:00:00:00:00:03, destination=00:00:00:00:00:0d) ns3::Ipv4Header (tos 0x0 DSCP Default ECN Not-ECT ttl 64 id 33 protocol 17 offset (bytes) 0 flags [none] length: 48 10.1.1.2 > 10.1.1.7) ns3::UdpHeader (length: 28 49153 > 9) Payload (size=20) ns3::EthernetTrailer (fcs=0)
+ 0.07 /NodeList/1/DeviceList/0/$ns3::CsmaNetDevice/TxQueue/Enqueue ns3::EthernetHeader ( length/type=0x800, source=00:00:00:00:00:03, destination=00:00:00:00:00:0d) ns3::Ipv4Header (tos 0x0 DSCP Default ECN Not-ECT ttl 64 id 34 protocol 17 offset (bytes) 0 flags [none] length: 48 10.1.1.2 > 10.1.1.7) ns3::UdpHeader (length: 28 49153 > 9) Payload (size=20) ns3::EthernetTrailer (fcs=0)
- 0.07 /NodeList/1/DeviceList/0/$ns3::CsmaNetDevice/TxQueue/Dequeue ns3::EthernetHeader ( length/type=0x800, source=00:00:00:00:00:03, destination=00:00:00:00:00:0d) ns3::Ipv4Header (tos 0x0 DSCP Default ECN Not-ECT ttl 64 id 34 protocol 17 offset (bytes) 0 flags [none] length: 48 10.1.1.2 > 10.1.1.7) ns3::UdpHeader (length: 28 49153 > 9) Payload (size=20) ns3::EthernetTrailer (fcs=0)
+ 0.072 /NodeList/1/DeviceList/0/$ns3::CsmaNetDevice/TxQueue/Enqueue ns3::EthernetHeader ( length/type=0x800, source=00:00:00:00:00:03, destination=00:00:00:00:00:0d) ns3::Ipv4Header (tos 0x0 DSCP Default ECN Not-ECT ttl 64 id 35 protocol 17 offset (bytes) 0 flags [none] length: 48 10.1.1.2 > 10.1.1.7) ns3::UdpHeader (length: 28 49153 > 9) Payload (size=20) ns3::EthernetTrailer (fcs=0)
- 0.072 /NodeList/1/DeviceList/0/$ns3::CsmaNetDevice/TxQueue/Dequeue ns3::EthernetHeader ( length/type=0x800, source=00:00:00:00:00:03, destination=00:00:00:00:00:0d) ns3::Ipv4Header (tos 0x0 DSCP Default ECN Not-ECT ttl 64 id 35 protocol 17 offset (bytes) 0 flags [none] length: 48 10.1.1.2 > 10.1.1.7) ns3::UdpHeader (length: 28 49153 > 9) Payload (size=20) ns3::EthernetTrailer (fcs=0)
+ 0.074 /NodeList/1/DeviceList/0/$ns3::CsmaNetDevice/TxQueue/Enqueue ns3::EthernetHeader ( length/type=0x800, source=00:00:00:00:00:03, destination=00:00:00:00:00:0d) ns3::Ipv4Header (tos 0x0 DSCP Default ECN Not-ECT ttl 64 id 36 protocol 17 offset (bytes) 0 flags [none] length: 48 10.1.1.2 > 10.1.1.7) ns3::UdpHeader (length: 28 49153 > 9) Payload (size=20) ns3::EthernetTrailer (fcs=0)
- 0.074 /NodeList/1/DeviceList/0/$ns3::CsmaNetDevice/TxQueue/Dequeue ns3::EthernetHeader ( length/type=0x800, source=00:00:00:00:00:03, destination=00:00:00:00:00:0d) ns3::Ipv4Header (tos 0x0 DSCP Default ECN Not-ECT ttl 64 id 36 protocol 17 offset (bytes) 0 flags [none] length: 48 10.1.1.2 > 10.1.1.7) ns3::UdpHeader (length: 28 49153 > 9) Payload (size=20) ns3::EthernetTrailer (fcs=0)
+ 0.076 /NodeList/1/DeviceList/0/$ns3::CsmaNetDevice/TxQueue/Enqueue ns3::EthernetHeader ( length/type=0x800, source=00:00:00:00:00:03, destination=00:00:00:00:00:0d) ns3::Ipv4Header (tos 0x0 DSCP Default ECN Not-ECT ttl 64 id 37 protocol 17 offset (bytes) 0 flags [none] length: 48 10.1.1.2 > 10.1.1.7) ns3::UdpHeader (length: 28 49153 > 9) Payload (size=20) ns3::EthernetTrailer (fcs=0)
- 0.076 /NodeList/1/DeviceList/0/$ns3::CsmaNetDevice/TxQueue/Dequeue ns3::EthernetHeader ( length/type=0x800, source=00:00:00:00:00:03, destination=00:00:00:00:00:0d) ns3::Ipv4Header (tos 0x0 DSCP Default ECN Not-ECT ttl 64 id 37 protocol 17 offset (bytes) 0 flags [none] length: 48 10.1.1.2 > 10.1.1.7) ns3::UdpHeader (length: 28 49153 > 9) Payload (size=20) ns3::EthernetTrailer (fcs=0)
+ 0.078 /NodeList/1/DeviceList/0/$ns3::CsmaNetDevice/TxQueue/Enqueue ns3::EthernetHeader ( length/type=0x800, source=00:00:00:00:00:03, destination=00:00:00:00:00:0d) ns3::Ipv4Header (tos 0x0 DSCP Default ECN Not-ECT ttl 64 id 38 protocol 17 offset (bytes) 0 flags [none] length: 48 10.1.1.2 > 10.1.1.7) ns3::UdpHeader (length: 28 49153 > 9) Payload (size=20) ns3::EthernetTrailer (fcs=0)